                         Program Version 4.2.1 -  RELEASE  -
|  1> ! sp uks wb97x-D3BJ aug-pc-2 grid5 finalgrid6 rijcosx tightscf moread CPCM(acetonitrile)
|  2>
|  3> %moinp "/cluster/home/ambr/projects/marius_tests_application/vacuum/boron_0_2.gbw"
|  4>
|  5> %PAL NProcs 20 END
|  6>
|  7> %SCF
|  8> 	directresetfreq 1
|  9> END
| 10> * xyz 0 2
| 11> C -1.78832884912439 2.13577011764125 -1.32804254202865
| 12> C -3.03148792869992 1.98660481949655 -0.45955295260085
| 13> C -0.53595737618157 2.03320511871958 -0.46632047856504
| 14> H -1.80799089384276 3.10235586221731 -1.83541040463795
| 15> H -1.77418233935773 1.37575592085383 -2.11299319666902
| 16> C -3.18240100960512 0.60899654774115 0.19290523873046
| 17> H -3.93739900064290 2.18647442629504 -1.04269177596711
| 18> H -3.00021038123697 2.74753601274346 0.32751656531292
| 19> C -0.33096587288753 0.65874252850555 0.17927357636790
| 20> H -0.59381299129876 2.78956411153207 0.32352782608357
| 21> H 0.35813949567343 2.27014319296594 -1.05356974051927
| 22> B -1.74494094921610 0.14560033098904 0.85236897914616
| 23> C 0.75522058889582 0.75829060427854 1.25343648510060
| 24> H 0.45520441292803 1.42693839840778 2.06124286099496
| 25> H 1.67207782759324 1.16104752425311 0.80915123908110
| 26> H 0.97460664828250 -0.21582047872474 1.69377153265420
| 27> C 0.09457444130146 -0.36715884233447 -0.87929033124357
| 28> H -0.67288467294220 -0.54680357911475 -1.62973258695437
| 29> H 0.35374618446137 -1.32526641555613 -0.42558844845704
| 30> H 0.97829008267851 0.01445619523245 -1.40100758437112
| 31> C -4.26073830865529 0.67816945215953 1.27734276126232
| 32> H -3.97217792819478 1.35504177114715 2.08254300289099
| 33> H -4.44883150349149 -0.30149006967966 1.71972280991877
| 34> H -5.19196723387662 1.05564380221334 0.84055174418750
| 35> C -3.58297346238787 -0.43556261576824 -0.85688257027681
| 36> H -2.81900585263367 -0.58531736453156 -1.61772510074728
| 37> H -4.48877479122560 -0.09262129446423 -1.36760516809403
| 38> H -3.79666754536491 -1.40159361044555 -0.39599032332701
| 39> O -1.72542079094809 -0.60961246677337 1.88362858272764
| 40> *
| 41>
| 42>                          ****END OF INPUT****

CARTESIAN COORDINATES (ANGSTROEM)
---------------------------------
  C     -1.788329    2.135770   -1.328043
  C     -3.031488    1.986605   -0.459553
  C     -0.535957    2.033205   -0.466320
  H     -1.807991    3.102356   -1.835410
  H     -1.774182    1.375756   -2.112993
  C     -3.182401    0.608997    0.192905
  H     -3.937399    2.186474   -1.042692
  H     -3.000210    2.747536    0.327517
  C     -0.330966    0.658743    0.179274
  H     -0.593813    2.789564    0.323528
  H      0.358139    2.270143   -1.053570
  B     -1.744941    0.145600    0.852369
  C      0.755221    0.758291    1.253436
  H      0.455204    1.426938    2.061243
  H      1.672078    1.161048    0.809151
  H      0.974607   -0.215820    1.693772
  C      0.094574   -0.367159   -0.879290
  H     -0.672885   -0.546804   -1.629733
  H      0.353746   -1.325266   -0.425588
  H      0.978290    0.014456   -1.401008
  C     -4.260738    0.678169    1.277343
  H     -3.972178    1.355042    2.082543
  H     -4.448832   -0.301490    1.719723
  H     -5.191967    1.055644    0.840552
  C     -3.582973   -0.435563   -0.856883
  H     -2.819006   -0.585317   -1.617725
  H     -4.488775   -0.092621   -1.367605
  H     -3.796668   -1.401594   -0.395990
  O     -1.725421   -0.609612    1.883629

 Total Charge           Charge          ....    0
 Multiplicity           Mult            ....    2
 Number of Electrons    NEL             ....   85
 Basis Dimension        Dim             ....  920

ORBITAL ENERGIES
----------------
                 SPIN UP ORBITALS
  NO   OCC          E(Eh)            E(eV)
   0   1.0000     -19.227511      -523.2072
   1   1.0000     -10.290071      -280.0071
   2   1.0000     -10.289953      -280.0039
   3   1.0000     -10.264416      -279.3090
   4   1.0000     -10.264375      -279.3078
   5   1.0000     -10.262402      -279.2541
   6   1.0000     -10.262337      -279.2524
   7   1.0000     -10.262153      -279.2474
   8   1.0000     -10.257968      -279.1335
   9   1.0000     -10.257876      -279.1310
  10   1.0000      -6.847145      -186.3203
  11   1.0000      -1.120968       -30.5031
  12   1.0000      -0.974140       -26.5077
  13   1.0000      -0.941533       -25.6204
  14   1.0000      -0.885495       -24.0955
  15   1.0000      -0.820752       -22.3338
  16   1.0000      -0.814489       -22.1634
  17   1.0000      -0.804233       -21.8843
  18   1.0000      -0.742601       -20.2072
  19   1.0000      -0.685844       -18.6628
  20   1.0000      -0.674380       -18.3508
  21   1.0000      -0.609880       -16.5957
  22   1.0000      -0.583413       -15.8755
  23   1.0000      -0.578903       -15.7527
  24   1.0000      -0.551258       -15.0005
  25   1.0000      -0.550175       -14.9710
  26   1.0000      -0.535043       -14.5593
  27   1.0000      -0.533616       -14.5204
  28   1.0000      -0.523492       -14.2449
  29   1.0000      -0.503889       -13.7115
  30   1.0000      -0.500362       -13.6156
  31   1.0000      -0.491039       -13.3618
  32   1.0000      -0.475070       -12.9273
  33   1.0000      -0.469486       -12.7754
  34   1.0000      -0.466950       -12.7063
  35   1.0000      -0.457445       -12.4477
  36   1.0000      -0.449036       -12.2189
  37   1.0000      -0.442646       -12.0450
  38   1.0000      -0.430579       -11.7167
  39   1.0000      -0.425582       -11.5807
  40   1.0000      -0.418517       -11.3884
  41   1.0000      -0.399730       -10.8772
  42   1.0000      -0.348697        -9.4885
  43   0.0000       0.022087         0.6010
  44   0.0000       0.027992         0.7617
  45   0.0000       0.028224         0.7680
  46   0.0000       0.029566         0.8045
  47   0.0000       0.040207         1.0941

                 SPIN DOWN ORBITALS
  NO   OCC          E(Eh)            E(eV)
   0   1.0000     -19.214230      -522.8458
   1   1.0000     -10.286610      -279.9129
   2   1.0000     -10.286507      -279.9101
   3   1.0000     -10.264428      -279.3093
   4   1.0000     -10.264387      -279.3082
   5   1.0000     -10.262417      -279.2546
   6   1.0000     -10.262353      -279.2528
   7   1.0000     -10.262076      -279.2453
   8   1.0000     -10.258016      -279.1348
   9   1.0000     -10.257924      -279.1323
  10   1.0000      -6.847854      -186.3396
  11   1.0000      -1.085297       -29.5324
  12   1.0000      -0.969931       -26.3932
  13   1.0000      -0.936615       -25.4866
  14   1.0000      -0.883603       -24.0441
  15   1.0000      -0.820089       -22.3158
  16   1.0000      -0.813795       -22.1445
  17   1.0000      -0.803313       -21.8593
  18   1.0000      -0.738724       -20.1017
  19   1.0000      -0.676866       -18.4185
  20   1.0000      -0.662164       -18.0184
  21   1.0000      -0.604790       -16.4572
  22   1.0000      -0.581438       -15.8217
  23   1.0000      -0.564351       -15.3568
  24   1.0000      -0.548409       -14.9230
  25   1.0000      -0.542531       -14.7630
  26   1.0000      -0.533328       -14.5126
  27   1.0000      -0.530620       -14.4389
  28   1.0000      -0.516387       -14.0516
  29   1.0000      -0.502269       -13.6674
  30   1.0000      -0.491860       -13.3842
  31   1.0000      -0.490341       -13.3429
  32   1.0000      -0.468864       -12.7584
  33   1.0000      -0.464181       -12.6310
  34   1.0000      -0.447894       -12.1878
  35   1.0000      -0.445881       -12.1330
  36   1.0000      -0.431025       -11.7288
  37   1.0000      -0.430718       -11.7204
  38   1.0000      -0.427977       -11.6459
  39   1.0000      -0.416521       -11.3341
  40   1.0000      -0.393034       -10.6950
  41   1.0000      -0.388822       -10.5804
  42   0.0000      -0.074703        -2.0328
  43   0.0000       0.022226         0.6048
  44   0.0000       0.028218         0.7679
  45   0.0000       0.028311         0.7704
  46   0.0000       0.029646         0.8067

MULLIKEN ATOMIC CHARGES AND SPIN POPULATIONS
--------------------------------------------
   0 C :    0.371033    0.007077
   1 C :   -1.236408    0.030275
   2 C :   -1.386666    0.029121
   3 H :   -0.504488   -0.008771
   4 H :    0.214933   -0.001231
   5 C :    0.130921    0.048910
   6 H :    1.033621    0.003850
   7 H :    0.899832    0.003445
   8 C :    0.157762    0.052441
   9 H :    0.806107    0.003305
  10 H :    0.889506    0.002860
  11 B :   -0.104172    0.444316
  12 C :   -0.947360   -0.001823
  13 H :    0.568761   -0.013323
  14 H :   -0.118700    0.007731
  15 H :    0.634049    0.013291
  16 C :   -0.576684   -0.021048
  17 H :   -0.879891   -0.007759
  18 H :    1.105514   -0.016343
  19 H :   -0.059925    0.029985
  20 C :   -0.953060   -0.001108
  21 H :    0.522476   -0.013093
  22 H :    0.631815    0.013697
  23 H :   -0.124844    0.006194
  24 C :   -0.554155   -0.021091
  25 H :   -0.728937   -0.006727
  26 H :   -0.134344    0.029505
  27 H :    1.113134   -0.015510
  28 O :   -0.769831    0.401823
Sum of atomic charges         :   -0.0000000

LOEWDIN ATOMIC CHARGES AND SPIN POPULATIONS
-------------------------------------------
   0 C :    0.135568    0.002946
   1 C :    0.066552    0.009906
   2 C :    0.067294    0.009963
   3 H :   -0.012130    0.000051
   4 H :   -0.070834    0.000116
   5 C :   -0.470822    0.136748
   6 H :   -0.030119    0.006927
   7 H :   -0.041397    0.000407
   8 C :   -0.470751    0.137099
   9 H :   -0.041110    0.000409
  10 H :   -0.029855    0.006950
  11 B :    0.017300    0.098295
  12 C :    0.331305    0.011623
  13 H :   -0.054786    0.000591
  14 H :   -0.046698    0.002721
  15 H :   -0.076377    0.000391
  16 C :    0.369361    0.008483
  17 H :   -0.088450    0.000746
  18 H :   -0.043017   -0.000395
  19 H :   -0.035066    0.005787
  20 C :    0.331794    0.011601
  21 H :   -0.054633    0.000605
  22 H :   -0.075705    0.000396
  23 H :   -0.046788    0.002736
  24 C :    0.369528    0.008431
  25 H :   -0.088355    0.000732
  26 H :   -0.034813    0.005764
  27 H :   -0.043369   -0.000403
  28 O :    0.166372    0.530375

  Mayer bond orders larger than 0.100000
B(  0-C ,  3-H ) :   2.1716 B(  0-C ,  4-H ) :   0.8193 B(  0-C ,  5-C ) :  -2.1837
B(  0-C ,  6-H ) :   0.2634 B(  0-C ,  7-H ) :  -0.4469 B(  0-C ,  8-C ) :  -1.8070
B(  0-C ,  9-H ) :  -0.4076 B(  0-C , 10-H ) :   0.5328 B(  0-C , 13-H ) :   0.1605
B(  0-C , 16-C ) :  -1.4461 B(  0-C , 17-H ) :  -0.8488 B(  0-C , 18-H ) :   0.3002
B(  0-C , 19-H ) :  -0.1057 B(  0-C , 21-H ) :   0.1605 B(  0-C , 24-C ) :  -1.3800
B(  0-C , 25-H ) :  -0.6461 B(  0-C , 26-H ) :  -0.1728 B(  0-C , 27-H ) :   0.3273
B(  0-C , 28-O ) :   0.1892 B(  1-C ,  2-C ) :   1.2653 B(  1-C ,  4-H ) :  -0.4929
B(  1-C ,  5-C ) :   0.1339 B(  1-C ,  6-H ) :  -0.9536 B(  1-C ,  7-H ) :   0.3449
B(  1-C ,  8-C ) :   0.3829 B(  1-C , 10-H ) :  -0.5072 B(  1-C , 12-C ) :  -0.1303
B(  1-C , 13-H ) :  -0.2421 B(  1-C , 14-H ) :  -0.1961 B(  1-C , 15-H ) :   0.5792
B(  1-C , 16-C ) :  -0.4000 B(  1-C , 17-H ) :   1.1564 B(  1-C , 18-H ) :  -0.2573
B(  1-C , 19-H ) :  -0.4497 B(  1-C , 20-C ) :  -1.6245 B(  1-C , 22-H ) :  -0.4531
B(  1-C , 24-C ) :   1.3745 B(  1-C , 25-H ) :   1.6954 B(  1-C , 26-H ) :   1.1686
B(  1-C , 27-H ) :  -0.5052 B(  1-C , 28-O ) :  -0.1392 B(  2-C ,  4-H ) :  -0.5406
B(  2-C ,  5-C ) :  -0.3363 B(  2-C ,  6-H ) :  -0.4529 B(  2-C ,  7-H ) :  -0.1408
B(  2-C ,  9-H ) :   0.3020 B(  2-C , 10-H ) :  -1.0437 B(  2-C , 11-B ) :   0.5425
B(  2-C , 12-C ) :  -1.3024 B(  2-C , 15-H ) :  -0.3251 B(  2-C , 16-C ) :   1.1405
B(  2-C , 17-H ) :   1.6702 B(  2-C , 18-H ) :  -0.4492 B(  2-C , 19-H ) :   0.9872
B(  2-C , 21-H ) :  -0.2581 B(  2-C , 22-H ) :   0.7055 B(  2-C , 23-H ) :  -0.1803
B(  2-C , 24-C ) :  -0.3658 B(  2-C , 25-H ) :   1.3352 B(  2-C , 26-H ) :  -0.4664
B(  2-C , 27-H ) :  -0.3868 B(  3-H ,  4-H ) :   0.3962 B(  3-H ,  7-H ) :  -0.2438
B(  3-H ,  9-H ) :  -0.2833 B(  3-H , 12-C ) :  -0.1720 B(  3-H , 13-H ) :   0.1038
B(  3-H , 14-H ) :  -0.1379 B(  3-H , 16-C ) :   0.1582 B(  3-H , 20-C ) :  -0.1356
B(  3-H , 21-H ) :   0.1039 B(  3-H , 23-H ) :  -0.1481 B(  3-H , 24-C ) :   0.2409
B(  3-H , 28-O ) :  -0.1417 B(  4-H ,  5-C ) :  -0.1296 B(  4-H , 10-H ) :  -0.1022
B(  4-H , 11-B ) :   0.3950 B(  4-H , 16-C ) :  -0.2718 B(  4-H , 17-H ) :  -0.2633
B(  4-H , 19-H ) :  -0.1742 B(  4-H , 24-C ) :  -0.2804 B(  4-H , 25-H ) :  -0.2073
B(  4-H , 26-H ) :  -0.1821 B(  4-H , 28-O ) :  -0.1875 B(  5-C ,  6-H ) :  -0.5772
B(  5-C ,  7-H ) :  -1.3356 B(  5-C ,  8-C ) :   2.6915 B(  5-C , 10-H ) :   0.5168
B(  5-C , 11-B ) :  -0.5995 B(  5-C , 12-C ) :  -1.2178 B(  5-C , 13-H ) :  -0.2504
B(  5-C , 14-H ) :   0.2578 B(  5-C , 15-H ) :  -0.3171 B(  5-C , 16-C ) :  -0.4057
B(  5-C , 17-H ) :  -0.5590 B(  5-C , 18-H ) :   0.2511 B(  5-C , 19-H ) :   0.1190
B(  5-C , 20-C ) :   1.0195 B(  5-C , 21-H ) :   0.3588 B(  5-C , 23-H ) :   1.0624
B(  5-C , 24-C ) :   0.1505 B(  5-C , 25-H ) :  -1.5136 B(  5-C , 27-H ) :  -0.2709
B(  5-C , 28-O ) :   0.3648 B(  6-H ,  7-H ) :   0.8466 B(  6-H ,  8-C ) :   0.4626
B(  6-H , 11-B ) :   0.5957 B(  6-H , 17-H ) :  -0.3367 B(  6-H , 21-H ) :  -0.4144
B(  6-H , 22-H ) :  -0.1079 B(  6-H , 25-H ) :  -0.2449 B(  6-H , 26-H ) :  -0.3003
B(  6-H , 27-H ) :   0.1785 B(  7-H ,  8-C ) :  -0.1304 B(  7-H ,  9-H ) :   0.3226
B(  7-H , 11-B ) :   0.4265 B(  7-H , 12-C ) :   0.1519 B(  7-H , 16-C ) :   0.1728
B(  7-H , 20-C ) :  -0.2835 B(  7-H , 24-C ) :  -0.4174 B(  7-H , 25-H ) :   0.1564
B(  7-H , 26-H ) :  -0.1420 B(  8-C ,  9-H ) :  -1.1632 B(  8-C , 10-H ) :  -0.5096
B(  8-C , 11-B ) :  -0.9527 B(  8-C , 12-C ) :   0.8562 B(  8-C , 13-H ) :   0.1901
B(  8-C , 14-H ) :   1.0097 B(  8-C , 16-C ) :   0.2381 B(  8-C , 17-H ) :  -1.4525
B(  8-C , 18-H ) :  -0.3969 B(  8-C , 20-C ) :  -1.2374 B(  8-C , 21-H ) :  -0.1341
B(  8-C , 22-H ) :  -0.4232 B(  8-C , 24-C ) :  -0.4910 B(  8-C , 25-H ) :  -0.5999
B(  8-C , 26-H ) :   0.1397 B(  8-C , 27-H ) :   0.3029 B(  8-C , 28-O ) :   0.2173
B(  9-H , 10-H ) :   0.7287 B(  9-H , 11-B ) :   0.1707 B(  9-H , 12-C ) :  -0.1974
B(  9-H , 16-C ) :  -0.3265 B(  9-H , 20-C ) :   0.1712 B(  9-H , 24-C ) :   0.1812
B(  9-H , 25-H ) :  -0.1182 B( 10-H , 11-B ) :   0.4351 B( 10-H , 13-H ) :  -0.2837
B( 10-H , 16-C ) :   0.1528 B( 10-H , 17-H ) :  -0.2411 B( 10-H , 18-H ) :   0.1616
B( 10-H , 19-H ) :  -0.1757 B( 10-H , 25-H ) :  -0.4545 B( 10-H , 26-H ) :   0.1064
B( 11-B , 12-C ) :   0.5805 B( 11-B , 14-H ) :  -0.1658 B( 11-B , 15-H ) :  -0.3289
B( 11-B , 16-C ) :  -1.3055 B( 11-B , 17-H ) :  -0.8653 B( 11-B , 18-H ) :   0.1937
B( 11-B , 19-H ) :   0.1989 B( 11-B , 20-C ) :   0.5912 B( 11-B , 21-H ) :   0.1919
B( 11-B , 22-H ) :  -0.4393 B( 11-B , 24-C ) :  -1.1385 B( 11-B , 25-H ) :  -0.7847
B( 11-B , 26-H ) :   0.3694 B( 11-B , 27-H ) :   0.1350 B( 11-B , 28-O ) :   0.2977
B( 12-C , 13-H ) :   0.4843 B( 12-C , 14-H ) :   1.0898 B( 12-C , 15-H ) :   0.5029
B( 12-C , 16-C ) :  -0.4416 B( 12-C , 17-H ) :  -0.1971 B( 12-C , 18-H ) :   0.1307
B( 12-C , 20-C ) :   0.5018 B( 12-C , 21-H ) :   0.1103 B( 12-C , 22-H ) :   0.2360
B( 12-C , 24-C ) :   0.1194 B( 12-C , 25-H ) :   0.2256 B( 13-H , 20-C ) :   0.1490
B( 13-H , 22-H ) :   0.1400 B( 13-H , 24-C ) :   0.1180 B( 13-H , 25-H ) :   0.2788
B( 14-H , 15-H ) :   0.1857 B( 14-H , 18-H ) :  -0.1159 B( 14-H , 19-H ) :   0.2147
B( 14-H , 25-H ) :  -0.1087 B( 15-H , 20-C ) :   0.2108 B( 15-H , 22-H ) :   0.2232
B( 16-C , 17-H ) :   2.7260 B( 16-C , 18-H ) :   0.2851 B( 16-C , 19-H ) :   0.5971
B( 16-C , 20-C ) :   0.1243 B( 16-C , 21-H ) :   0.1151 B( 16-C , 24-C ) :   0.3646
B( 16-C , 25-H ) :  -0.2912 B( 16-C , 28-O ) :   0.1813 B( 17-H , 18-H ) :  -0.6394
B( 17-H , 19-H ) :   0.1153 B( 17-H , 20-C ) :   0.2789 B( 17-H , 21-H ) :   0.3001
B( 17-H , 23-H ) :  -0.1548 B( 17-H , 24-C ) :  -0.2142 B( 17-H , 25-H ) :  -0.4539
B( 17-H , 28-O ) :   0.2475 B( 18-H , 28-O ) :  -0.1148 B( 20-C , 21-H ) :   0.4663
B( 20-C , 22-H ) :   0.5579 B( 20-C , 23-H ) :   1.1262 B( 20-C , 24-C ) :  -0.3681
B( 20-C , 25-H ) :  -0.1825 B( 20-C , 26-H ) :   0.1492 B( 20-C , 27-H ) :   0.1360
B( 21-H , 23-H ) :   0.1231 B( 21-H , 25-H ) :  -0.1258 B( 21-H , 26-H ) :   0.1073
B( 22-H , 23-H ) :   0.2027 B( 22-H , 27-H ) :   0.1011 B( 23-H , 25-H ) :  -0.1344
B( 23-H , 26-H ) :   0.2871 B( 23-H , 27-H ) :  -0.1301 B( 24-C , 25-H ) :   2.5778
B( 24-C , 26-H ) :   0.5846 B( 24-C , 27-H ) :   0.2801 B( 24-C , 28-O ) :   0.1418
B( 25-H , 27-H ) :  -0.5708 B( 25-H , 28-O ) :   0.2176 B( 27-H , 28-O ) :  -0.1065

Dispersion correction           -0.055617010
FINAL SINGLE POINT ENERGY      -454.320535239530

DIPOLE MOMENT
-------------
                                X             Y             Z
Electronic contribution:      0.05970      -2.10584       4.58779
Nuclear contribution   :     -0.08368       3.02575      -5.90595
                        -----------------------------------------
Total Dipole Moment    :     -0.02398       0.91992      -1.31817
                        -----------------------------------------
Magnitude (a.u.)       :      1.60760
Magnitude (Debye)      :      4.08620

Rotational constants in cm-1:     0.049259     0.032553     0.026540
Rotational constants in MHz :  1476.761668   975.907592   795.636654

                             ****ORCA TERMINATED NORMALLY****
TOTAL RUN TIME: 0 days 0 hours 8 minutes 57 seconds 814 msec
