                         Program Version 4.2.1 -  RELEASE  -
|  1> ! uks wb97x-D3BJ pc-2 numfreq grid5 finalgrid6 rijcosx tightscf
|  2>
|  3> %maxcore 2000
|  4>
|  5> %PAL
|  6>   Nprocs 96
|  7> END
|  8>
|  9> * xyz 0 2
| 10>   C   -1.78832884912439      2.13577011764125     -1.32804254202865
| 11>   C   -3.03148792869992      1.98660481949655     -0.45955295260085
| 12>   C   -0.53595737618157      2.03320511871958     -0.46632047856504
| 13>   H   -1.80799089384276      3.10235586221731     -1.83541040463795
| 14>   H   -1.77418233935773      1.37575592085383     -2.11299319666902
| 15>   C   -3.18240100960512      0.60899654774115      0.19290523873046
| 16>   H   -3.93739900064290      2.18647442629504     -1.04269177596711
| 17>   H   -3.00021038123697      2.74753601274346      0.32751656531292
| 18>   C   -0.33096587288753      0.65874252850555      0.17927357636790
| 19>   H   -0.59381299129876      2.78956411153207      0.32352782608357
| 20>   H   0.35813949567343      2.27014319296594     -1.05356974051927
| 21>   B   -1.74494094921610      0.14560033098904      0.85236897914616
| 22>   C   0.75522058889582      0.75829060427854      1.25343648510060
| 23>   H   0.45520441292803      1.42693839840778      2.06124286099496
| 24>   H   1.67207782759324      1.16104752425311      0.80915123908110
| 25>   H   0.97460664828250     -0.21582047872474      1.69377153265420
| 26>   C   0.09457444130146     -0.36715884233447     -0.87929033124357
| 27>   H   -0.67288467294220     -0.54680357911475     -1.62973258695437
| 28>   H   0.35374618446137     -1.32526641555613     -0.42558844845704
| 29>   H   0.97829008267851      0.01445619523245     -1.40100758437112
| 30>   C   -4.26073830865529      0.67816945215953      1.27734276126232
| 31>   H   -3.97217792819478      1.35504177114715      2.08254300289099
| 32>   H   -4.44883150349149     -0.30149006967966      1.71972280991877
| 33>   H   -5.19196723387662      1.05564380221334      0.84055174418750
| 34>   C   -3.58297346238787     -0.43556261576824     -0.85688257027681
| 35>   H   -2.81900585263367     -0.58531736453156     -1.61772510074728
| 36>   H   -4.48877479122560     -0.09262129446423     -1.36760516809403
| 37>   H   -3.79666754536491     -1.40159361044555     -0.39599032332701
| 38>   O   -1.72542079094809     -0.60961246677337      1.88362858272764
| 39> *
| 40>
| 41>                          ****END OF INPUT****

CARTESIAN COORDINATES (ANGSTROEM)
---------------------------------
  C     -1.788329    2.135770   -1.328043
  C     -3.031488    1.986605   -0.459553
  C     -0.535957    2.033205   -0.466320
  H     -1.807991    3.102356   -1.835410
  H     -1.774182    1.375756   -2.112993
  C     -3.182401    0.608997    0.192905
  H     -3.937399    2.186474   -1.042692
  H     -3.000210    2.747536    0.327517
  C     -0.330966    0.658743    0.179274
  H     -0.593813    2.789564    0.323528
  H      0.358139    2.270143   -1.053570
  B     -1.744941    0.145600    0.852369
  C      0.755221    0.758291    1.253436
  H      0.455204    1.426938    2.061243
  H      1.672078    1.161048    0.809151
  H      0.974607   -0.215820    1.693772
  C      0.094574   -0.367159   -0.879290
  H     -0.672885   -0.546804   -1.629733
  H      0.353746   -1.325266   -0.425588
  H      0.978290    0.014456   -1.401008
  C     -4.260738    0.678169    1.277343
  H     -3.972178    1.355042    2.082543
  H     -4.448832   -0.301490    1.719723
  H     -5.191967    1.055644    0.840552
  C     -3.582973   -0.435563   -0.856883
  H     -2.819006   -0.585317   -1.617725
  H     -4.488775   -0.092621   -1.367605
  H     -3.796668   -1.401594   -0.395990
  O     -1.725421   -0.609612    1.883629

 Total Charge           Charge          ....    0
 Multiplicity           Mult            ....    2
 Number of Electrons    NEL             ....   85
 Basis Dimension        Dim             ....  582

ORBITAL ENERGIES
----------------
                 SPIN UP ORBITALS
  NO   OCC          E(Eh)            E(eV)
   0   1.0000     -19.230099      -523.2776
   1   1.0000     -10.290173      -280.0098
   2   1.0000     -10.290089      -280.0076
   3   1.0000     -10.272962      -279.5415
   4   1.0000     -10.272929      -279.5406
   5   1.0000     -10.271934      -279.5135
   6   1.0000     -10.269920      -279.4587
   7   1.0000     -10.269904      -279.4583
   8   1.0000     -10.261651      -279.2337
   9   1.0000     -10.261520      -279.2302
  10   1.0000      -6.843014      -186.2079
  11   1.0000      -1.121746       -30.5243
  12   1.0000      -0.979862       -26.6634
  13   1.0000      -0.945624       -25.7317
  14   1.0000      -0.892069       -24.2744
  15   1.0000      -0.825797       -22.4711
  16   1.0000      -0.819853       -22.3093
  17   1.0000      -0.810666       -22.0593
  18   1.0000      -0.748072       -20.3561
  19   1.0000      -0.691063       -18.8048
  20   1.0000      -0.677916       -18.4470
  21   1.0000      -0.616255       -16.7691
  22   1.0000      -0.589317       -16.0361
  23   1.0000      -0.582907       -15.8617
  24   1.0000      -0.555821       -15.1247
  25   1.0000      -0.552691       -15.0395
  26   1.0000      -0.541222       -14.7274
  27   1.0000      -0.537929       -14.6378
  28   1.0000      -0.525987       -14.3128
  29   1.0000      -0.508053       -13.8248
  30   1.0000      -0.506142       -13.7728
  31   1.0000      -0.498023       -13.5519
  32   1.0000      -0.478976       -13.0336
  33   1.0000      -0.475489       -12.9387
  34   1.0000      -0.471215       -12.8224
  35   1.0000      -0.457922       -12.4607
  36   1.0000      -0.456105       -12.4112
  37   1.0000      -0.445950       -12.1349
  38   1.0000      -0.436012       -11.8645
  39   1.0000      -0.431526       -11.7424
  40   1.0000      -0.425923       -11.5899
  41   1.0000      -0.404581       -11.0092
  42   1.0000      -0.349911        -9.5216
  43   0.0000       0.079987         2.1766
  44   0.0000       0.092595         2.5196
  45   0.0000       0.098169         2.6713
  46   0.0000       0.100852         2.7443
  47   0.0000       0.115711         3.1487

                 SPIN DOWN ORBITALS
  NO   OCC          E(Eh)            E(eV)
   0   1.0000     -19.215029      -522.8675
   1   1.0000     -10.287025      -279.9242
   2   1.0000     -10.286950      -279.9221
   3   1.0000     -10.272973      -279.5418
   4   1.0000     -10.272941      -279.5409
   5   1.0000     -10.271874      -279.5119
   6   1.0000     -10.269955      -279.4597
   7   1.0000     -10.269939      -279.4592
   8   1.0000     -10.261720      -279.2356
   9   1.0000     -10.261589      -279.2320
  10   1.0000      -6.844013      -186.2351
  11   1.0000      -1.080483       -29.4014
  12   1.0000      -0.976186       -26.5634
  13   1.0000      -0.941475       -25.6189
  14   1.0000      -0.890303       -24.2264
  15   1.0000      -0.825274       -22.4568
  16   1.0000      -0.819320       -22.2948
  17   1.0000      -0.809881       -22.0380
  18   1.0000      -0.745077       -20.2746
  19   1.0000      -0.683152       -18.5895
  20   1.0000      -0.667594       -18.1661
  21   1.0000      -0.611875       -16.6500
  22   1.0000      -0.587722       -15.9927
  23   1.0000      -0.569322       -15.4920
  24   1.0000      -0.554150       -15.0792
  25   1.0000      -0.545751       -14.8506
  26   1.0000      -0.539718       -14.6865
  27   1.0000      -0.535545       -14.5729
  28   1.0000      -0.515225       -14.0200
  29   1.0000      -0.506540       -13.7837
  30   1.0000      -0.497697       -13.5430
  31   1.0000      -0.497326       -13.5329
  32   1.0000      -0.475010       -12.9257
  33   1.0000      -0.469444       -12.7742
  34   1.0000      -0.455489       -12.3945
  35   1.0000      -0.445224       -12.1152
  36   1.0000      -0.436081       -11.8664
  37   1.0000      -0.436039       -11.8652
  38   1.0000      -0.433946       -11.8083
  39   1.0000      -0.422229       -11.4894
  40   1.0000      -0.394363       -10.7312
  41   1.0000      -0.391612       -10.6563
  42   0.0000      -0.066390        -1.8066
  43   0.0000       0.080572         2.1925
  44   0.0000       0.094091         2.5603
  45   0.0000       0.098802         2.6885
  46   0.0000       0.101127         2.7518

MULLIKEN ATOMIC CHARGES AND SPIN POPULATIONS
--------------------------------------------
   0 C :   -0.000294    0.001819
   1 C :   -0.076938   -0.003382
   2 C :   -0.078373   -0.003367
   3 H :    0.027800   -0.000466
   4 H :    0.005555   -0.000205
   5 C :   -0.028303    0.180563
   6 H :    0.019957    0.012752
   7 H :    0.023096    0.000215
   8 C :   -0.027429    0.180961
   9 H :    0.023751    0.000224
  10 H :    0.019634    0.012787
  11 B :    0.395651   -0.087902
  12 C :   -0.066168    0.001810
  13 H :    0.019477    0.000969
  14 H :    0.012190    0.001857
  15 H :    0.035359    0.000512
  16 C :   -0.042387    0.000565
  17 H :    0.005753    0.001530
  18 H :    0.041027    0.000509
  19 H :    0.019171    0.009977
  20 C :   -0.065651    0.001789
  21 H :    0.019492    0.000985
  22 H :    0.035170    0.000515
  23 H :    0.012683    0.001918
  24 C :   -0.042429    0.000559
  25 H :    0.005377    0.001520
  26 H :    0.019100    0.009928
  27 H :    0.041254    0.000535
  28 O :   -0.353521    0.670523
Sum of atomic charges         :    0.0000000

LOEWDIN ATOMIC CHARGES AND SPIN POPULATIONS
-------------------------------------------
   0 C :    0.027703    0.002553
   1 C :    0.016236    0.006167
   2 C :    0.016552    0.006197
   3 H :   -0.003246   -0.000381
   4 H :   -0.003609    0.000182
   5 C :   -0.091584    0.132646
   6 H :    0.001603    0.007436
   7 H :    0.006431    0.000147
   8 C :   -0.091326    0.133007
   9 H :    0.006331    0.000150
  10 H :    0.001501    0.007456
  11 B :   -0.225430    0.074866
  12 C :    0.046067    0.004280
  13 H :    0.003247    0.000046
  14 H :    0.000273    0.001953
  15 H :    0.004863    0.000501
  16 C :    0.054613    0.005229
  17 H :   -0.006020    0.000447
  18 H :    0.008797   -0.000046
  19 H :    0.004949    0.005721
  20 C :    0.046149    0.004291
  21 H :    0.003259    0.000057
  22 H :    0.004829    0.000484
  23 H :    0.000440    0.001976
  24 C :    0.054575    0.005198
  25 H :   -0.005803    0.000435
  26 H :    0.004859    0.005693
  27 H :    0.008856   -0.000040
  28 O :    0.104885    0.593347

  Mayer bond orders larger than 0.100000
B(  0-C ,  1-C ) :   0.9643 B(  0-C ,  2-C ) :   0.9643 B(  0-C ,  3-H ) :   1.0164
B(  0-C ,  4-H ) :   1.0139 B(  1-C ,  5-C ) :   0.9656 B(  1-C ,  6-H ) :   1.0170
B(  1-C ,  7-H ) :   1.0176 B(  2-C ,  8-C ) :   0.9646 B(  2-C ,  9-H ) :   1.0177
B(  2-C , 10-H ) :   1.0171 B(  5-C , 11-B ) :   0.8787 B(  5-C , 20-C ) :   0.9680
B(  5-C , 24-C ) :   0.9539 B(  8-C , 11-B ) :   0.8788 B(  8-C , 12-C ) :   0.9679
B(  8-C , 16-C ) :   0.9541 B( 11-B , 28-O ) :   1.6844 B( 12-C , 13-H ) :   1.0098
B( 12-C , 14-H ) :   1.0014 B( 12-C , 15-H ) :   1.0095 B( 16-C , 17-H ) :   0.9950
B( 16-C , 18-H ) :   1.0083 B( 16-C , 19-H ) :   0.9999 B( 20-C , 21-H ) :   1.0096
B( 20-C , 22-H ) :   1.0094 B( 20-C , 23-H ) :   1.0013 B( 24-C , 25-H ) :   0.9952
B( 24-C , 26-H ) :   0.9997 B( 24-C , 27-H ) :   1.0086

Dispersion correction           -0.055617010
FINAL SINGLE POINT ENERGY      -454.310979891860
Dispersion correction            ... done

DIPOLE MOMENT
-------------
                                X             Y             Z
Electronic contribution:      0.06916      -2.46880       5.09019
Nuclear contribution   :     -0.08368       3.02575      -5.90595
                        -----------------------------------------
Total Dipole Moment    :     -0.01452       0.55695      -0.81576
                        -----------------------------------------
Magnitude (a.u.)       :      0.98786
Magnitude (Debye)      :      2.51095

VIBRATIONAL FREQUENCIES
-----------------------

Scaling factor for frequencies =  1.000000000 (already applied!)

   0:         0.00 cm**-1
   1:         0.00 cm**-1
   2:         0.00 cm**-1
   3:         0.00 cm**-1
   4:         0.00 cm**-1
   5:         0.00 cm**-1
   6:        76.62 cm**-1
   7:        86.11 cm**-1
   8:       176.17 cm**-1
   9:       180.24 cm**-1
  10:       217.02 cm**-1
  11:       221.39 cm**-1
  12:       250.38 cm**-1
  13:       280.93 cm**-1
  14:       295.06 cm**-1
  15:       300.05 cm**-1
  16:       314.41 cm**-1
  17:       347.27 cm**-1
  18:       353.07 cm**-1
  19:       383.29 cm**-1
  20:       405.10 cm**-1
  21:       436.04 cm**-1
  22:       456.15 cm**-1
  23:       465.82 cm**-1
  24:       552.21 cm**-1
  25:       565.40 cm**-1
  26:       657.16 cm**-1
  27:       711.82 cm**-1
  28:       792.56 cm**-1
  29:       833.89 cm**-1
  30:       893.81 cm**-1
  31:       893.94 cm**-1
  32:       950.82 cm**-1
  33:       968.27 cm**-1
  34:       969.56 cm**-1
  35:       972.98 cm**-1
  36:      1007.66 cm**-1
  37:      1010.89 cm**-1
  38:      1019.89 cm**-1
  39:      1061.55 cm**-1
  40:      1099.32 cm**-1
  41:      1103.07 cm**-1
  42:      1155.12 cm**-1
  43:      1177.98 cm**-1
  44:      1220.39 cm**-1
  45:      1236.28 cm**-1
  46:      1248.34 cm**-1
  47:      1252.55 cm**-1
  48:      1270.35 cm**-1
  49:      1305.25 cm**-1
  50:      1381.27 cm**-1
  51:      1390.59 cm**-1
  52:      1397.25 cm**-1
  53:      1402.58 cm**-1
  54:      1407.16 cm**-1
  55:      1413.09 cm**-1
  56:      1433.42 cm**-1
  57:      1438.74 cm**-1
  58:      1484.45 cm**-1
  59:      1491.71 cm**-1
  60:      1492.28 cm**-1
  61:      1493.82 cm**-1
  62:      1505.65 cm**-1
  63:      1505.87 cm**-1
  64:      1513.23 cm**-1
  65:      1517.09 cm**-1
  66:      1518.95 cm**-1
  67:      1521.99 cm**-1
  68:      1526.54 cm**-1
  69:      3038.49 cm**-1
  70:      3040.80 cm**-1
  71:      3042.84 cm**-1
  72:      3044.05 cm**-1
  73:      3051.31 cm**-1
  74:      3053.35 cm**-1
  75:      3068.39 cm**-1
  76:      3078.73 cm**-1
  77:      3089.15 cm**-1
  78:      3117.20 cm**-1
  79:      3118.16 cm**-1
  80:      3118.90 cm**-1
  81:      3127.13 cm**-1
  82:      3128.46 cm**-1
  83:      3144.76 cm**-1
  84:      3145.47 cm**-1
  85:      3154.52 cm**-1
  86:      3166.49 cm**-1

IR SPECTRUM
-----------

 Mode    freq (cm**-1)   T**2         TX         TY         TZ
-------------------------------------------------------------------
   6:        76.62    1.679514  (  0.090836  -0.949309  -0.877539)
   7:        86.11    0.220983  (  0.087666   0.329320   0.323799)
   8:       176.17    1.290645  (  0.006995  -1.115599  -0.214557)
   9:       180.24    0.171800  (  0.177649  -0.356765  -0.113839)
  10:       217.02    0.879071  ( -0.924290  -0.156752   0.013703)
  11:       221.39    0.259122  (  0.251379  -0.370434   0.242300)
  12:       250.38    0.377476  ( -0.583563  -0.181683   0.062622)
  13:       280.93    0.449066  (  0.036038   0.170644  -0.647030)
  14:       295.06    0.952608  (  0.970531   0.097722  -0.033596)
  15:       300.05    0.775759  (  0.161919  -0.777802   0.380217)
  16:       314.41    2.416199  ( -0.048994   0.567479  -1.446294)
  17:       347.27    0.144142  ( -0.335690   0.037369  -0.173371)
  18:       353.07    0.075368  (  0.256976  -0.096194   0.008853)
  19:       383.29    0.040177  (  0.175270  -0.026821   0.093478)
  20:       405.10    2.489117  ( -0.001961  -1.336774   0.837943)
  21:       436.04    0.670134  (  0.013290   0.354088  -0.737956)
  22:       456.15    0.114506  (  0.338143  -0.010466  -0.007497)
  23:       465.82    2.806008  ( -1.674954  -0.018640  -0.013705)
  24:       552.21    3.888195  ( -0.003680   0.261686  -1.954406)
  25:       565.40   16.741738  (  0.078832  -2.523930   3.219519)
  26:       657.16    7.730891  ( -0.005300   2.236566   1.651858)
  27:       711.82    5.402858  (  2.323872  -0.004923  -0.049512)
  28:       792.56   15.446270  ( -0.050070   2.679196  -2.875008)
  29:       833.89    0.723847  ( -0.850178  -0.028382  -0.015427)
  30:       893.81    1.242237  ( -0.905711  -0.105643  -0.640910)
  31:       893.94    3.150486  ( -1.734017   0.006273   0.378988)
  32:       950.82    0.001073  ( -0.020945  -0.020221   0.015009)
  33:       968.27    0.154016  ( -0.048724  -0.357993  -0.153242)
  34:       969.56    0.416058  (  0.580195  -0.080867   0.269985)
  35:       972.98    2.541047  (  0.135390  -0.153797  -1.580842)
  36:      1007.66    2.585698  ( -0.111970   1.204937  -1.058908)
  37:      1010.89    1.281019  (  0.061343  -1.119377   0.155729)
  38:      1019.89    3.398785  (  1.837103   0.149342  -0.039186)
  39:      1061.55    0.116300  (  0.020552  -0.054731   0.335979)
  40:      1099.32    0.283033  ( -0.531451  -0.002945   0.024175)
  41:      1103.07    1.153990  ( -1.071270   0.041577  -0.068125)
  42:      1155.12   29.305310  (  5.409983   0.160480  -0.107881)
  43:      1177.98   67.574976  (  0.176547  -4.837086   6.644276)
  44:      1220.39    0.576357  (  0.019553   0.475140  -0.591791)
  45:      1236.28    1.348624  (  1.160691  -0.022720   0.030066)
  46:      1248.34   19.403430  ( -4.402412  -0.124568   0.081739)
  47:      1252.55    9.608472  (  0.030737  -2.105447   2.274779)
  48:      1270.35    3.378276  (  1.836280  -0.041056   0.068302)
  49:      1305.25    4.812220  (  0.033140  -1.381787   1.703463)
  50:      1381.27    0.546995  ( -0.737452  -0.000916  -0.056201)
  51:      1390.59    3.610901  ( -0.013341   0.596909  -1.804002)
  52:      1397.25   28.946890  (  0.139224  -3.197562   4.324708)
  53:      1402.58    1.055469  (  1.015795   0.113376  -0.103801)
  54:      1407.16    0.008841  (  0.010302  -0.085874  -0.036887)
  55:      1413.09   13.563166  ( -0.065597  -2.272237  -2.897551)
  56:      1433.42    4.485163  ( -2.094206   0.287560   0.129513)
  57:      1438.74    2.946820  (  0.278746   1.664083  -0.316144)
  58:      1484.45    0.239517  ( -0.480963  -0.020434   0.088172)
  59:      1491.71    0.546616  (  0.164552   0.696159  -0.186821)
  60:      1492.28    0.394310  ( -0.590702   0.184753  -0.106057)
  61:      1493.82    0.219742  (  0.066968   0.451315   0.107572)
  62:      1505.65    3.990795  (  1.506384   0.175811   1.300267)
  63:      1505.87   11.540303  (  0.608666  -0.351950  -3.323546)
  64:      1513.23    3.709181  (  1.909360  -0.167831   0.188042)
  65:      1517.09    2.940063  ( -1.665480  -0.306644   0.268719)
  66:      1518.95    6.555440  (  0.101279  -0.555936   2.497222)
  67:      1521.99    1.527428  (  0.182909  -1.221859  -0.032151)
  68:      1526.54   19.409008  ( -0.000114   4.398608   0.247496)
  69:      3038.49    7.194279  (  2.503907  -0.952540  -0.131889)
  70:      3040.80   12.274890  (  0.851684   3.386123   0.289301)
  71:      3042.84   57.926542  (  7.244658  -1.911708  -1.336729)
  72:      3044.05   40.121285  (  3.042549   4.596682   3.120048)
  73:      3051.31   51.589778  ( -7.146155  -0.231841  -0.684466)
  74:      3053.35   13.936624  ( -1.522548   0.591521   3.356870)
  75:      3068.39    7.785197  ( -0.096105  -2.219418   1.688238)
  76:      3078.73   24.285232  (  4.892147   0.083594   0.587490)
  77:      3089.15   53.239834  (  0.344045  -0.269237  -7.283473)
  78:      3117.20   30.745309  (  0.291699  -4.971822   2.437458)
  79:      3118.16    9.454897  ( -2.646932  -1.287830  -0.888898)
  80:      3118.90   30.402280  (  0.753099  -3.105375  -4.493525)
  81:      3127.13   13.236914  ( -3.418386   1.145222  -0.489917)
  82:      3128.46   26.270676  ( -0.654861  -4.622960   2.114255)
  83:      3144.76    8.513720  (  0.991279  -2.675008  -0.612716)
  84:      3145.47   37.296774  ( -0.253033  -5.952627  -1.341262)
  85:      3154.52   28.858259  (  5.341144   0.246728  -0.519201)
  86:      3166.49   20.370073  (  0.620438  -0.033481   4.470348)

--------------------------
THERMOCHEMISTRY AT 298.15K
--------------------------

Temperature         ... 298.15 K
Pressure            ... 1.00 atm
Total Mass          ... 153.05 AMU

Throughout the following assumptions are being made:
  (1) The electronic state is orbitally nondegenerate
      but the spin degeneracy is treated
  (2) There are no thermally accessible electronically excited states
  (3) Hindered rotations indicated by low frequency modes are not
      treated as such but are treated as vibrations and this may
      cause some error
  (4) All equations used are the standard statistical mechanics
      equations for an ideal gas
  (5) All vibrations are strictly harmonic

freq.      76.62  E(vib)   ...       0.49
freq.      86.11  E(vib)   ...       0.48
freq.     176.17  E(vib)   ...       0.38
freq.     180.24  E(vib)   ...       0.37
freq.     217.02  E(vib)   ...       0.34
freq.     221.39  E(vib)   ...       0.33
freq.     250.38  E(vib)   ...       0.30
freq.     280.93  E(vib)   ...       0.28
freq.     295.06  E(vib)   ...       0.27
freq.     300.05  E(vib)   ...       0.26
freq.     314.41  E(vib)   ...       0.25
freq.     347.27  E(vib)   ...       0.23
freq.     353.07  E(vib)   ...       0.22
freq.     383.29  E(vib)   ...       0.20
freq.     405.10  E(vib)   ...       0.19
freq.     436.04  E(vib)   ...       0.17
freq.     456.15  E(vib)   ...       0.16
freq.     465.82  E(vib)   ...       0.16
freq.     552.21  E(vib)   ...       0.12
freq.     565.40  E(vib)   ...       0.11
freq.     657.16  E(vib)   ...       0.08
freq.     711.82  E(vib)   ...       0.07
freq.     792.56  E(vib)   ...       0.05
freq.     833.89  E(vib)   ...       0.04
freq.     893.81  E(vib)   ...       0.03
freq.     893.94  E(vib)   ...       0.03
freq.     950.82  E(vib)   ...       0.03
freq.     968.27  E(vib)   ...       0.03
freq.     969.56  E(vib)   ...       0.03
freq.     972.98  E(vib)   ...       0.03
freq.    1007.66  E(vib)   ...       0.02
freq.    1010.89  E(vib)   ...       0.02
freq.    1019.89  E(vib)   ...       0.02
freq.    1061.55  E(vib)   ...       0.02
freq.    1099.32  E(vib)   ...       0.02
freq.    1103.07  E(vib)   ...       0.02
freq.    1155.12  E(vib)   ...       0.01
freq.    1177.98  E(vib)   ...       0.01
freq.    1220.39  E(vib)   ...       0.01
freq.    1236.28  E(vib)   ...       0.01
freq.    1248.34  E(vib)   ...       0.01
freq.    1252.55  E(vib)   ...       0.01
freq.    1270.35  E(vib)   ...       0.01
freq.    1305.25  E(vib)   ...       0.01
freq.    1381.27  E(vib)   ...       0.01
freq.    1390.59  E(vib)   ...       0.00
freq.    1397.25  E(vib)   ...       0.00
freq.    1402.58  E(vib)   ...       0.00
freq.    1407.16  E(vib)   ...       0.00
freq.    1413.09  E(vib)   ...       0.00
freq.    1433.42  E(vib)   ...       0.00
freq.    1438.74  E(vib)   ...       0.00
freq.    1484.45  E(vib)   ...       0.00
freq.    1491.71  E(vib)   ...       0.00
freq.    1492.28  E(vib)   ...       0.00
freq.    1493.82  E(vib)   ...       0.00
freq.    1505.65  E(vib)   ...       0.00
freq.    1505.87  E(vib)   ...       0.00
freq.    1513.23  E(vib)   ...       0.00
freq.    1517.09  E(vib)   ...       0.00
freq.    1518.95  E(vib)   ...       0.00
freq.    1521.99  E(vib)   ...       0.00
freq.    1526.54  E(vib)   ...       0.00
freq.    3038.49  E(vib)   ...       0.00
freq.    3040.80  E(vib)   ...       0.00
freq.    3042.84  E(vib)   ...       0.00
freq.    3044.05  E(vib)   ...       0.00
freq.    3051.31  E(vib)   ...       0.00
freq.    3053.35  E(vib)   ...       0.00
freq.    3068.39  E(vib)   ...       0.00
freq.    3078.73  E(vib)   ...       0.00
freq.    3089.15  E(vib)   ...       0.00
freq.    3117.20  E(vib)   ...       0.00
freq.    3118.16  E(vib)   ...       0.00
freq.    3118.90  E(vib)   ...       0.00
freq.    3127.13  E(vib)   ...       0.00
freq.    3128.46  E(vib)   ...       0.00
freq.    3144.76  E(vib)   ...       0.00
freq.    3145.47  E(vib)   ...       0.00
freq.    3154.52  E(vib)   ...       0.00
freq.    3166.49  E(vib)   ...       0.00

------------
INNER ENERGY
------------

The inner energy is: U= E(el) + E(ZPE) + E(vib) + E(rot) + E(trans)
    E(el)   - is the total energy from the electronic structure calculation
              = E(kin-el) + E(nuc-el) + E(el-el) + E(nuc-nuc)
    E(ZPE)  - the the zero temperature vibrational energy from the frequency calculation
    E(vib)  - the the finite temperature correction to E(ZPE) due to population
              of excited vibrational states
    E(rot)  - is the rotational thermal energy
    E(trans)- is the translational thermal energy

Summary of contributions to the inner energy U:
Electronic energy                ...   -454.31097990 Eh
Zero point energy                ...      0.26139712 Eh     164.03 kcal/mol
Thermal vibrational correction   ...      0.00956316 Eh       6.00 kcal/mol
Thermal rotational correction    ...      0.00141627 Eh       0.89 kcal/mol
Thermal translational correction ...      0.00141627 Eh       0.89 kcal/mol
-----------------------------------------------------------------------
Total thermal energy                   -454.03718708 Eh

Summary of corrections to the electronic energy:
(perhaps to be used in another calculation)
Total thermal correction                  0.01239570 Eh       7.78 kcal/mol
Non-thermal (ZPE) correction              0.26139712 Eh     164.03 kcal/mol
-----------------------------------------------------------------------
Total correction                          0.27379282 Eh     171.81 kcal/mol

--------
ENTHALPY
--------

The enthalpy is H = U + kB*T
                kB is Boltzmann's constant
Total free energy                 ...   -454.03718708 Eh
Thermal Enthalpy correction       ...      0.00094421 Eh       0.59 kcal/mol
-----------------------------------------------------------------------
Total Enthalpy                    ...   -454.03624287 Eh

Note: Only C1 symmetry has been detected, increase convergence thresholds
      if your molecule has a higher symmetry. Symmetry factor of 1.0 is
      used for the rotational entropy correction.

Note: Rotational entropy computed according to Herzberg
Infrared and Raman Spectra, Chapter V,1, Van Nostrand Reinhold, 1945
Point Group:  C1, Symmetry Number:   1
Rotational constants in cm-1:     0.049259     0.032553     0.026540

Vibrational entropy computed according to the QRRHO of S. Grimme
Chem.Eur.J. 2012 18 9955

-------
ENTROPY
-------

                             ****ORCA TERMINATED NORMALLY****
TOTAL RUN TIME: 0 days 1 hours 39 minutes 6 seconds 842 msec
