                         Program Version 4.2.1 -  RELEASE  -
|  1> ! uks wb97x-D3BJ pc-2 opt grid5 finalgrid6 rijcosx tightscf tightopt
|  2>
|  3> %PAL
|  4>   Nprocs 20
|  5> END
|  6>
|  7> * xyz 0 2
|  8> C         -1.87450        2.21992       -1.27461
|  9> C         -3.06162        2.02317       -0.44779
| 10> C         -0.44507        2.08022       -0.51693
| 11> H         -1.92377        3.24273       -1.80683
| 12> H         -1.77293        1.43420       -2.10944
| 13> C         -3.23957        0.56731        0.28965
| 14> H         -3.95303        2.24313       -1.07282
| 15> H         -3.05614        2.79596        0.34978
| 16> C         -0.20952        0.66641        0.26040
| 17> H         -0.53022        2.84912        0.34057
| 18> H          0.37873        2.33484       -1.08881
| 19> P         -1.79035        0.18596        1.27542
| 20> C          0.96474        0.82116        1.18032
| 21> H          0.77527        1.58682        1.95537
| 22> H          1.88409        1.10916        0.63278
| 23> H          1.15815       -0.14102        1.68836
| 24> C          0.10621       -0.38722       -0.84364
| 25> H         -0.66301       -0.47038       -1.63062
| 26> H          0.19683       -1.37423       -0.35642
| 27> H          1.07010       -0.15272       -1.33945
| 28> C         -4.45767        0.70681        1.20074
| 29> H         -4.29482        1.47990        1.97445
| 30> H         -4.60652       -0.26262        1.71003
| 31> H         -5.39243        0.95567        0.66016
| 32> C         -3.56427       -0.46463       -0.82970
| 33> H         -2.79842       -0.51530       -1.62270
| 34> H         -4.54102       -0.27128       -1.31806
| 35> H         -3.60920       -1.45455       -0.34200
| 36> O         -1.81565       -1.27033        1.70346
| 37> *
| 38>
| 39>                          ****END OF INPUT****
 Total Charge           Charge          ....    0
 Multiplicity           Mult            ....    2
 Number of Electrons    NEL             ....   95
Dispersion correction           -0.063035269
FINAL SINGLE POINT ENERGY      -770.783738187636
Dispersion correction            ... done
Dispersion correction           -0.064416759
FINAL SINGLE POINT ENERGY      -770.809937210993
Dispersion correction            ... done
Dispersion correction           -0.065459401
FINAL SINGLE POINT ENERGY      -770.820635517025
Dispersion correction            ... done
FINAL SINGLE POINT ENERGY      -770.823123347439
FINAL SINGLE POINT ENERGY      -770.823075835180
FINAL SINGLE POINT ENERGY      -770.822559046887
FINAL SINGLE POINT ENERGY      -770.822306716849
FINAL SINGLE POINT ENERGY      -770.822186687874
FINAL SINGLE POINT ENERGY      -770.822150215512
FINAL SINGLE POINT ENERGY      -770.822147806254
Dispersion correction            ... done
Dispersion correction           -0.065114135
FINAL SINGLE POINT ENERGY      -770.822150560248
Dispersion correction            ... done
Dispersion correction           -0.065115045
FINAL SINGLE POINT ENERGY      -770.822149819297
Dispersion correction            ... done
                    ***********************HURRAY********************

CARTESIAN COORDINATES (ANGSTROEM)
---------------------------------
  C     -1.798177    2.092369   -1.302548
  C     -3.047761    1.991501   -0.433752
  C     -0.531226    2.040582   -0.455429
  H     -1.820365    3.033190   -1.856022
  H     -1.788602    1.297735   -2.051865
  C     -3.274674    0.618522    0.216642
  H     -3.941824    2.225967   -1.020397
  H     -2.991901    2.750693    0.353192
  C     -0.240757    0.682806    0.204733
  H     -0.601684    2.804772    0.325222
  H      0.342620    2.302682   -1.059976
  P     -1.742126    0.067400    1.109154
  C      0.889148    0.869210    1.224989
  H      0.613417    1.592007    1.993812
  H      1.774745    1.254444    0.709655
  H      1.149646   -0.070817    1.715209
  C      0.190936   -0.359990   -0.830580
  H     -0.593995   -0.593588   -1.547759
  H      0.477130   -1.289543   -0.338420
  H      1.049793    0.029709   -1.384955
  C     -4.401195    0.743826    1.249674
  H     -4.147382    1.466752    2.026192
  H     -4.613422   -0.213073    1.730624
  H     -5.308146    1.097873    0.749320
  C     -3.666902   -0.429798   -0.828467
  H     -2.881732   -0.604331   -1.561788
  H     -4.554824   -0.080405   -1.363878
  H     -3.893602   -1.382066   -0.348344
  O     -1.712746   -1.400219    1.397432

 Multiplicity           Mult            ....    2
 Number of Electrons    NEL             ....   95
 Basis Dimension        Dim             ....  586

ORBITAL ENERGIES
----------------
                 SPIN UP ORBITALS
  NO   OCC          E(Eh)            E(eV)
   0   1.0000     -77.084802     -2097.5841
   1   1.0000     -19.175987      -521.8051
   2   1.0000     -10.302860      -280.3551
   3   1.0000     -10.302549      -280.3466
   4   1.0000     -10.283538      -279.8293
   5   1.0000     -10.283436      -279.8265
   6   1.0000     -10.279914      -279.7307
   7   1.0000     -10.271973      -279.5146
   8   1.0000     -10.271866      -279.5117
   9   1.0000     -10.270741      -279.4811
  10   1.0000     -10.270686      -279.4796
  11   1.0000      -6.683104      -181.8565
  12   1.0000      -4.838824      -131.6711
  13   1.0000      -4.834340      -131.5491
  14   1.0000      -4.833613      -131.5293
  15   1.0000      -1.100096       -29.9351
  16   1.0000      -0.990783       -26.9606
  17   1.0000      -0.956934       -26.0395
  18   1.0000      -0.902730       -24.5645
  19   1.0000      -0.831797       -22.6344
  20   1.0000      -0.826358       -22.4863
  21   1.0000      -0.820385       -22.3238
  22   1.0000      -0.773492       -21.0478
  23   1.0000      -0.725996       -19.7553
  24   1.0000      -0.689354       -18.7583
  25   1.0000      -0.636989       -17.3333
  26   1.0000      -0.595930       -16.2161
  27   1.0000      -0.587302       -15.9813
  28   1.0000      -0.571715       -15.5572
  29   1.0000      -0.565950       -15.4003
  30   1.0000      -0.548664       -14.9299
  31   1.0000      -0.545798       -14.8519
  32   1.0000      -0.534716       -14.5504
  33   1.0000      -0.516518       -14.0552
  34   1.0000      -0.505885       -13.7658
  35   1.0000      -0.499514       -13.5925
  36   1.0000      -0.485247       -13.2043
  37   1.0000      -0.478731       -13.0269
  38   1.0000      -0.470193       -12.7946
  39   1.0000      -0.466471       -12.6933
  40   1.0000      -0.452861       -12.3230
  41   1.0000      -0.452487       -12.3128
  42   1.0000      -0.446217       -12.1422
  43   1.0000      -0.433734       -11.8025
  44   1.0000      -0.432450       -11.7676
  45   1.0000      -0.421475       -11.4689
  46   1.0000      -0.364475        -9.9179
  47   1.0000      -0.298714        -8.1284
  48   0.0000       0.080526         2.1912
  49   0.0000       0.095752         2.6055
  50   0.0000       0.096361         2.6221
  51   0.0000       0.101284         2.7561
  52   0.0000       0.113668         3.0931

                 SPIN DOWN ORBITALS
  NO   OCC          E(Eh)            E(eV)
   0   1.0000     -77.082425     -2097.5194
   1   1.0000     -19.169239      -521.6215
   2   1.0000     -10.301741      -280.3246
   3   1.0000     -10.301444      -280.3166
   4   1.0000     -10.283544      -279.8295
   5   1.0000     -10.283443      -279.8267
   6   1.0000     -10.279898      -279.7302
   7   1.0000     -10.271913      -279.5130
   8   1.0000     -10.271803      -279.5100
   9   1.0000     -10.270498      -279.4745
  10   1.0000     -10.270444      -279.4730
  11   1.0000      -6.680473      -181.7849
  12   1.0000      -4.832742      -131.5056
  13   1.0000      -4.832243      -131.4920
  14   1.0000      -4.830894      -131.4553
  15   1.0000      -1.084720       -29.5167
  16   1.0000      -0.988117       -26.8880
  17   1.0000      -0.955182       -25.9918
  18   1.0000      -0.901459       -24.5299
  19   1.0000      -0.830800       -22.6072
  20   1.0000      -0.825537       -22.4640
  21   1.0000      -0.820100       -22.3160
  22   1.0000      -0.766236       -20.8503
  23   1.0000      -0.719649       -19.5827
  24   1.0000      -0.686419       -18.6784
  25   1.0000      -0.631688       -17.1891
  26   1.0000      -0.595088       -16.1932
  27   1.0000      -0.584757       -15.9121
  28   1.0000      -0.565348       -15.3839
  29   1.0000      -0.564337       -15.3564
  30   1.0000      -0.547990       -14.9116
  31   1.0000      -0.542307       -14.7569
  32   1.0000      -0.525457       -14.2984
  33   1.0000      -0.515107       -14.0168
  34   1.0000      -0.504965       -13.7408
  35   1.0000      -0.498772       -13.5723
  36   1.0000      -0.484967       -13.1966
  37   1.0000      -0.475782       -12.9467
  38   1.0000      -0.465977       -12.6799
  39   1.0000      -0.460878       -12.5411
  40   1.0000      -0.449021       -12.2185
  41   1.0000      -0.444927       -12.1071
  42   1.0000      -0.437773       -11.9124
  43   1.0000      -0.431392       -11.7388
  44   1.0000      -0.417698       -11.3661
  45   1.0000      -0.407139       -11.0788
  46   1.0000      -0.355781        -9.6813
  47   0.0000      -0.016030        -0.4362
  48   0.0000       0.080824         2.1993
  49   0.0000       0.095811         2.6072
  50   0.0000       0.097276         2.6470
  51   0.0000       0.103484         2.8159

MULLIKEN ATOMIC CHARGES AND SPIN POPULATIONS
--------------------------------------------
   0 C :   -0.002846    0.002579
   1 C :   -0.084188   -0.000168
   2 C :   -0.081022    0.000114
   3 H :    0.034088    0.000268
   4 H :    0.010560    0.000112
   5 C :   -0.069108    0.052898
   6 H :    0.030694    0.001113
   7 H :    0.033704    0.002558
   8 C :   -0.069625    0.053101
   9 H :    0.033604    0.002413
  10 H :    0.030017    0.001293
  11 P :    0.560707    0.600055
  12 C :   -0.088510   -0.004722
  13 H :    0.027385    0.000288
  14 H :    0.016817   -0.001448
  15 H :    0.051303    0.000763
  16 C :   -0.015943    0.015747
  17 H :    0.011800   -0.000668
  18 H :    0.059906   -0.000636
  19 H :    0.013110    0.003018
  20 C :   -0.090142   -0.004900
  21 H :    0.027007    0.000200
  22 H :    0.051854    0.000771
  23 H :    0.017123   -0.001464
  24 C :   -0.014008    0.015546
  25 H :    0.009681   -0.000691
  26 H :    0.013492    0.003106
  27 H :    0.060858   -0.000572
  28 O :   -0.578320    0.259327
Sum of atomic charges         :    0.0000000

LOEWDIN ATOMIC CHARGES AND SPIN POPULATIONS
-------------------------------------------
   0 C :    0.018134    0.000265
   1 C :   -0.007539    0.004141
   2 C :   -0.007157    0.004137
   3 H :   -0.001537   -0.000077
   4 H :   -0.004957    0.000026
   5 C :   -0.287336    0.067984
   6 H :    0.002301    0.000705
   7 H :    0.001409    0.000981
   8 C :   -0.286935    0.068588
   9 H :    0.001430    0.000907
  10 H :    0.002141    0.000750
  11 P :    0.975240    0.533533
  12 C :    0.016850    0.008687
  13 H :   -0.005745    0.004183
  14 H :    0.002089   -0.000460
  15 H :    0.002972    0.000538
  16 C :    0.027258    0.013532
  17 H :   -0.008722    0.000351
  18 H :    0.006909    0.000865
  19 H :    0.001058    0.004071
  20 C :    0.016616    0.008724
  21 H :   -0.005672    0.004281
  22 H :    0.003161    0.000536
  23 H :    0.001852   -0.000446
  24 C :    0.027445    0.013423
  25 H :   -0.009204    0.000320
  26 H :    0.001333    0.004079
  27 H :    0.006874    0.000925
  28 O :   -0.490269    0.254452

  Mayer bond orders larger than 0.100000
B(  0-C ,  1-C ) :   0.9610 B(  0-C ,  2-C ) :   0.9617 B(  0-C ,  3-H ) :   1.0140
B(  0-C ,  4-H ) :   1.0111 B(  1-C ,  5-C ) :   0.9357 B(  1-C ,  6-H ) :   1.0191
B(  1-C ,  7-H ) :   1.0140 B(  2-C ,  8-C ) :   0.9333 B(  2-C ,  9-H ) :   1.0143
B(  2-C , 10-H ) :   1.0193 B(  5-C , 11-P ) :   0.8886 B(  5-C , 20-C ) :   0.9863
B(  5-C , 24-C ) :   0.9693 B(  8-C , 11-P ) :   0.8877 B(  8-C , 12-C ) :   0.9864
B(  8-C , 16-C ) :   0.9703 B( 11-P , 28-O ) :   1.7714 B( 12-C , 13-H ) :   1.0069
B( 12-C , 14-H ) :   1.0026 B( 12-C , 15-H ) :   1.0084 B( 16-C , 17-H ) :   0.9893
B( 16-C , 18-H ) :   1.0041 B( 16-C , 19-H ) :   1.0049 B( 20-C , 21-H ) :   1.0070
B( 20-C , 22-H ) :   1.0084 B( 20-C , 23-H ) :   1.0028 B( 24-C , 25-H ) :   0.9894
B( 24-C , 26-H ) :   1.0047 B( 24-C , 27-H ) :   1.0041

Dispersion correction           -0.065115617
FINAL SINGLE POINT ENERGY      -770.822148074083

DIPOLE MOMENT
-------------
                                X             Y             Z
Electronic contribution:      0.10599      -4.49445       6.79070
Nuclear contribution   :     -0.13359       5.84058      -7.62792
                        -----------------------------------------
Total Dipole Moment    :     -0.02760       1.34614      -0.83722
                        -----------------------------------------
Magnitude (a.u.)       :      1.58549
Magnitude (Debye)      :      4.02999

Rotational constants in cm-1:     0.044208     0.030049     0.023755
Rotational constants in MHz :  1325.336443   900.847362   712.168015

                             ****ORCA TERMINATED NORMALLY****
TOTAL RUN TIME: 0 days 0 hours 21 minutes 10 seconds 71 msec
